
                                 *****************
                                 * O   R   C   A *
                                 *****************

                                            #,                                       
                                            ###                                      
                                            ####                                     
                                            #####                                    
                                            ######                                   
                                           ########,                                 
                                     ,,################,,,,,                         
                               ,,#################################,,                 
                          ,,##########################################,,             
                       ,#########################################, ''#####,          
                    ,#############################################,,   '####,        
                  ,##################################################,,,,####,       
                ,###########''''           ''''###############################       
              ,#####''   ,,,,##########,,,,          '''####'''          '####       
            ,##' ,,,,###########################,,,                        '##       
           ' ,,###''''                  '''############,,,                           
         ,,##''                                '''############,,,,        ,,,,,,###''
      ,#''                                            '''#######################'''  
     '                                                          ''''####''''         
             ,#######,   #######,   ,#######,      ##                                
            ,#'     '#,  ##    ##  ,#'     '#,    #''#        ,####,   ,####,        
            ##       ##  ##   ,#'  ##            #'  '#       #'       #'  '#        
            ##       ##  #######   ##           ,######,      #####,   #    #        
            '#,     ,#'  ##    ##  '#,     ,#' ,#      #,     #,   #   #,  ,#        
             '#######'   ##     ##  '#######'  #'      '#     '####' # '####'        



                #########################################################
                #                        -***-                          #
                #          Department of theory and spectroscopy        #
                #                                                       #
                #                      Frank Neese                      #
                #                                                       #
                #     Directorship, Architecture, Infrastructure        #
                #                    SHARK, DRIVERS                     #
                #        Core code/Algorithms in most modules           #
                #                                                       #
                #        Max Planck Institute fuer Kohlenforschung      #
                #                Kaiser Wilhelm Platz 1                 #
                #                 D-45470 Muelheim/Ruhr                 #
                #                      Germany                          #
                #                                                       #
                #                  All rights reserved                  #
                #                        -***-                          #
                #########################################################


                         Program Version 6.0.0  -   RELEASE  -


 With contributions from (in alphabetic order):
   Daniel Aravena         : Magnetic Suceptibility
   Michael Atanasov       : Ab Initio Ligand Field Theory (pilot matlab implementation)
   Alexander A. Auer      : GIAO ZORA, VPT2 properties, NMR spectrum
   Ute Becker             : All parallelization in ORCA, NUMFREQ, NUMCALC
   Giovanni Bistoni       : ED, misc. LED, open-shell LED, HFLD
   Martin Brehm           : Molecular dynamics
   Dmytro Bykov           : pre 5.0 version of the SCF Hessian
   Marcos Casanova-Páez   : Triplet and SCS-CIS(D). UHF-(DLPNO)-IP/EA/STEOM-CCSD. UHF-CVS-IP/STEOM-CCSD
   Vijay G. Chilkuri      : MRCI spin determinant printing, contributions to CSF-ICE
   Pauline Colinet        : FMM embedding
   Dipayan Datta          : RHF DLPNO-CCSD density
   Achintya Kumar Dutta   : EOM-CC, STEOM-CC
   Nicolas Foglia         : Exact transition moments, OPA infrastructure, MCD improvements
   Dmitry Ganyushin       : Spin-Orbit,Spin-Spin,Magnetic field MRCI
   Miquel Garcia          : C-PCM and meta-GGA Hessian, CCSD/C-PCM, Gaussian charge scheme
   Tiago L. C. Gouveia    : GS-ROHF, GS-ROCIS
   Yang Guo               : DLPNO-NEVPT2, F12-NEVPT2, CIM, IAO-localization
   Andreas Hansen         : Spin unrestricted coupled pair/coupled cluster methods
   Ingolf Harden          : AUTO-CI MPn and infrastructure 
   Benjamin Helmich-Paris : MC-RPA, TRAH-(SCF,CASSCF), AVAS, COSX integrals, SCF dyn. polar.
   Lee Huntington         : MR-EOM, pCC
   Robert Izsak           : Overlap fitted RIJCOSX, COSX-SCS-MP3, EOM
   Riya Kayal             : Wick's Theorem for AUTO-CI, AUTO-CI UHF-CCSDT
   Emily Kempfer          : AUTO-CI, RHF CISDT and CCSDT
   Christian Kollmar      : KDIIS, OOCD, Brueckner-CCSD(T), CCSD density, CASPT2, CASPT2-K, improved NEVPT2
   Axel Koslowski         : Symmetry handling
   Simone Kossmann        : Meta GGA functionals, TD-DFT gradient, OOMP2, (MP2 Hessian; deprecated post 5.0)
   Lucas Lang             : DCDCAS
   Marvin Lechner         : AUTO-CI (C++ implementation), FIC-MRCC
   Spencer Leger          : CASSCF response
   Dagmar Lenk            : GEPOL surface, SMD, ORCA-2-JSON
   Dimitrios Liakos       : Extrapolation schemes; Compound Job, initial MDCI parallelization
   Dimitrios Manganas     : Further ROCIS development; embedding schemes. LFT, Crystal Embedding
   Dimitrios Pantazis     : SARC Basis sets
   Anastasios Papadopoulos: AUTO-CI, single reference methods and gradients
   Taras Petrenko         : pre 6.0 DFT Hessian and TD-DFT gradient, (ASA, deprecated), ECA, 1-Electron XAS/XES, NRVS
   Peter Pinski           : DLPNO-MP2, DLPNO-MP2 Gradient
   Christoph Reimann      : Effective Core Potentials
   Marius Retegan         : Local ZFS, SOC
   Christoph Riplinger    : Optimizer, TS searches, QM/MM, DLPNO-CCSD(T), (RO)-DLPNO pert. Triples
   Michael Roemelt        : Original ROCIS implementation
   Masaaki Saitow         : Open-shell DLPNO-CCSD energy and density
   Barbara Sandhoefer     : DKH picture change effects
   Kantharuban Sivalingam : CASSCF convergence/infrastructure, NEVPT2 and variants, FIC-MRCI
   Bernardo de Souza      : ESD, SOC TD-DFT
   Georgi Stoychev        : AutoAux, RI-MP2 NMR, DLPNO-MP2 response, X2C
   Van Anh Tran           : RI-MP2 g-tensors
   Willem Van den Heuvel  : Paramagnetic NMR
   Zikuan Wang            : NOTCH, Electric field optimization 
   Frank Wennmohs         : Technical directorship and infrastructure
   Hang Xu                : AUTO-CI-Response properties 


 We gratefully acknowledge several colleagues who have allowed us to
 interface, adapt or use parts of their codes:
   Stefan Grimme, W. Hujo, H. Kruse, P. Pracht,  : VdW corrections, initial TS optimization,
                  C. Bannwarth, S. Ehlert,         DFT functionals, gCP, sTDA/sTD-DF
                  L. Wittmann, M. Mueller
   Ed Valeev, F. Pavosevic, A. Kumar             : LibInt (2-el integral package), F12 methods
   Garnet Chan, S. Sharma, J. Yang, R. Olivares  : DMRG
   Ulf Ekstrom                                   : XCFun DFT Library
   Mihaly Kallay                                 : mrcc  (arbitrary order and MRCC methods)
   Frank Weinhold                                : gennbo (NPA and NBO analysis)
   Simon Mueller                                 : openCOSMO-RS
   Christopher J. Cramer and Donald G. Truhlar   : smd solvation model
   Lars Goerigk                                  : TD-DFT with DH, B97 family of functionals
   V. Asgeirsson, H. Jonsson                     : NEB implementation
   FAccTs GmbH                                   : IRC, NEB, NEB-TS, DLPNO-Multilevel, CI-OPT
                                                   MM, QMMM, 2- and 3-layer-ONIOM, Crystal-QMMM,
                                                   LR-CPCM, SF, NACMEs, symmetry and pop. for TD-DFT,
                                                   nearIR, NL-DFT gradient (VV10), updates on ESD,
                                                   ML-optimized integration grids, MBIS, APM,
                                                   GOAT, DOCKER, SOLVATOR, interface openCOSMO-RS
   S Lehtola, MJT Oliveira, MAL Marques          : LibXC Library
   Liviu Ungur et al                             : ANISO software


 Your calculation uses the libint2 library for the computation of 2-el integrals
 For citations please refer to: http://libint.valeyev.net

 Your ORCA version has been built with support for libXC version: 6.2.2
 For citations please refer to: https://libxc.gitlab.io

 This ORCA versions uses:
   CBLAS   interface :  Fast vector & matrix operations
   LAPACKE interface :  Fast linear algebra routines
   SCALAPACK package :  Parallel linear algebra routines
   Shared memory     :  Shared parallel matrices
   BLAS/LAPACK       :  OpenBLAS 0.3.27  USE64BITINT DYNAMIC_ARCH NO_AFFINITY Cooperlake SINGLE_THREADED
        Core in use  :  Cooperlake
   Copyright (c) 2011-2014, The OpenBLAS Project


Using LibXC functional ID 465 : Long-range corrected short-range hybrid PBE (LRC-wPBEh) by Rohrdanz, Martins and Herbert
[ 1]  M. A. Rohrdanz, K. M. Martins, and J. M. Herbert.,  J. Chem. Phys. 130, 054112 (2009)
Using LibXC functional ID 465 : Long-range corrected short-range hybrid PBE (LRC-wPBEh) by Rohrdanz, Martins and Herbert
[ 1]  M. A. Rohrdanz, K. M. Martins, and J. M. Herbert.,  J. Chem. Phys. 130, 054112 (2009)
NOTE: MaxCore=4000 MB was set to SCF,MP2,MDCI,CIPSI,MRCI and CIS
      => If you want to overwrite this, your respective input block should be placed after the MaxCore statement


***************************************
The coordinates will be read from file: PI7.xyz
***************************************


Your calculation utilizes LibXC
 by S Lehtola, C Steigemann, MJT Oliveira & MAL Marques
Please cite in your paper:
 S Lehtola, C Steigemann, MJT Oliveira & MAL Marques, SoftwareX, 7, (2018), 1.
   

================================================================================

----- Orbital basis set information -----
Your calculation utilizes the basis: def2-SVP
   F. Weigend and R. Ahlrichs, Phys. Chem. Chem. Phys. 7, 3297 (2005).

----- AuxJ basis set information -----
Your calculation utilizes the auxiliary basis: def2/J
   F. Weigend, Phys. Chem. Chem. Phys. 8, 1057 (2006).

================================================================================
                                        WARNINGS
                       Please study these warnings very carefully!
================================================================================


WARNING: MOInp is set but Guess=PModel. MOInp will be ignored!
         To read the initial guess from a file you must also specify
         'MORead' in the simple input or 'Guess MORead' in the %scf block

INFO   : Checking CIS options ...

WARNING: (CIS/TDDFT): When using ORCA_ESD, CPCMEQ is set by default to TRUE
  ===> : turning on equilibrium dielectric conditions.

WARNING: CIS/ROCIS methods need fully converged wavefunctions
  ===> : Setting SCFConvForced true
         You can overwrite this default with %scf ConvForced false 


================================================================================
                                       INPUT FILE
================================================================================
NAME = P7.inp
|  1> ! def2-SVP ESD(ISC) CPCM(Toluene) RIJCOSX 
|  2> %scf
|  3>   moinp "PI7.gbw"
|  4> end
|  5> %TDDFT NROOTS 3
|  6>        tda true
|  7>        triplets true
|  8>        SROOT 1
|  9>        TROOT 2
| 10>        TROOTSSL 0
| 11>        DOSOC TRUE
| 12> END
| 13> %basis
| 14>         AuxJ  "Def2/J" 
| 15> End
| 16> %scf
| 17>   MaxIter 300
| 18> end
| 19> %rel
| 20>   SOCType 3
| 21>   SOCFlags 1,3,3,0     # RI-SOMF(1X): 1e term on; Coulomb via RI; one-center exact exchange; no corr
| 22>   SOCMaxCenter 4
| 23> end
| 24> %method
| 25>         method dft
| 26>         functional HYB_GGA_XC_LRC_WPBEH
| 27>         ExtParamXC "_omega" 0.06924171915036594
| 28> END
| 29> %ESD
| 30>    USEJ TRUE
| 31>    DOHT TRUE
| 32>    ISCISHESSIAN "PI7-3LE.hess"
| 33>    ISCFSHESSIAN "PI7_S1.hess" 
| 34>    NPOINTS 327680
| 35>    DELE -161.31
| 36>    PrintLevel 4
| 37>    LINEW      50
| 38>    INLINEW    150 
| 39> END
| 40> %maxcore 4000
| 41> %pal nprocs 16 end
| 42> * XYZFILE 0 1 PI7.xyz
| 43> 
| 44>                          ****END OF INPUT****
================================================================================

                       ****************************
                       * Single Point Calculation *
                       ****************************

The geometry is being displaced to its center of mass!
---------------------------------
CARTESIAN COORDINATES (ANGSTROEM)
---------------------------------
  C      2.380134    2.447917    2.229948
  C      1.678130    1.579748    1.388096
  C      0.352287    1.826459    1.025029
  C     -0.311904    2.977731    1.509280
  C      0.413016    3.849205    2.363138
  C      1.727124    3.591852    2.717729
  C     -1.687614    3.320334    1.166443
  C     -2.363566    2.440335    0.217575
  C     -1.779137    1.265983   -0.310443
  C     -2.489291    0.480847   -1.221702
  H     -2.026841   -0.429136   -1.622164
  C     -3.779158    0.826816   -1.635547
  C     -4.366504    1.991873   -1.116301
  C     -3.672529    2.779204   -0.211610
  H      3.417870    2.234471    2.501196
  H      2.184044    0.684854    1.007274
  H     -0.120583    4.733565    2.723262
  H      2.257989    4.284678    3.379754
  H     -4.316834    0.196938   -2.349953
  H     -5.376354    2.280952   -1.427363
  H     -4.102602    3.693272    0.207919
  C     -0.379400    0.794090    0.136373
  C     -0.555721   -0.462681    0.964191
  C      0.465135    0.548376   -1.094783
  C     -1.344917   -0.418450    2.116533
  C      0.064750   -1.691416    0.622430
  C      1.052734   -0.707245   -1.377092
  C      0.691803    1.600670   -1.984923
  C     -1.521961   -1.540296    2.917033
  H     -1.825416    0.527137    2.382173
  C     -0.116532   -2.835965    1.443087
  C      1.851848   -0.877756   -2.536660
  H      0.238189    2.571303   -1.766880
  C      1.473372    1.433060   -3.122176
  C     -0.900992   -2.755480    2.574867
  H     -2.144850   -1.476137    3.813414
  H      0.363375   -3.778232    1.176046
  C      2.056038    0.183738   -3.395800
  H      2.303617   -1.847467   -2.749182
  H      1.634342    2.274408   -3.801812
  H     -1.037988   -3.640334    3.202239
  H      2.672399    0.045909   -4.288271
  O     -2.251863    4.347751    1.635169
  C      1.484970   -3.035605   -0.820125
  C      2.760139   -3.291446   -0.313645
  C      0.816401   -3.970440   -1.611989
  C      3.374834   -4.509033   -0.608121
  H      3.260355   -2.540749    0.304843
  C      1.441329   -5.184674   -1.899787
  H     -0.182571   -3.744381   -1.995589
  C      2.717400   -5.453966   -1.399407
  H      4.373938   -4.718148   -0.215030
  H      0.925376   -5.923830   -2.519384
  H      3.203038   -6.407319   -1.627587
  N      0.848003   -1.778271   -0.516339

----------------------------
CARTESIAN COORDINATES (A.U.)
----------------------------
  NO LB      ZA    FRAG     MASS         X           Y           Z
   0 C     6.0000    0    12.011    4.497802    4.625892    4.213991
   1 C     6.0000    0    12.011    3.171205    2.985290    2.623120
   2 C     6.0000    0    12.011    0.665725    3.451507    1.937024
   3 C     6.0000    0    12.011   -0.589414    5.627096    2.852127
   4 C     6.0000    0    12.011    0.780487    7.273943    4.465683
   5 C     6.0000    0    12.011    3.263791    6.787616    5.135764
   6 C     6.0000    0    12.011   -3.189129    6.274522    2.204258
   7 C     6.0000    0    12.011   -4.466493    4.611565    0.411157
   8 C     6.0000    0    12.011   -3.362081    2.392361   -0.586652
   9 C     6.0000    0    12.011   -4.704078    0.908670   -2.308683
  10 H     1.0000    0     1.008   -3.830174   -0.810949   -3.065446
  11 C     6.0000    0    12.011   -7.141574    1.562455   -3.090736
  12 C     6.0000    0    12.011   -8.251496    3.764095   -2.109504
  13 C     6.0000    0    12.011   -6.940074    5.251934   -0.399884
  14 H     1.0000    0     1.008    6.458838    4.222539    4.726576
  15 H     1.0000    0     1.008    4.127244    1.294186    1.903472
  16 H     1.0000    0     1.008   -0.227868    8.945142    5.146219
  17 H     1.0000    0     1.008    4.266981    8.096869    6.386809
  18 H     1.0000    0     1.008   -8.157633    0.372158   -4.440768
  19 H     1.0000    0     1.008  -10.159838    4.310374   -2.697326
  20 H     1.0000    0     1.008   -7.752794    6.979273    0.392910
  21 C     6.0000    0    12.011   -0.716962    1.500612    0.257707
  22 C     6.0000    0    12.011   -1.050160   -0.874341    1.822057
  23 C     6.0000    0    12.011    0.878978    1.036280   -2.068839
  24 C     6.0000    0    12.011   -2.541525   -0.790755    3.999668
  25 C     6.0000    0    12.011    0.122361   -3.196313    1.176222
  26 C     6.0000    0    12.011    1.989380   -1.336499   -2.602327
  27 C     6.0000    0    12.011    1.307318    3.024827   -3.750961
  28 C     6.0000    0    12.011   -2.876090   -2.910737    5.512394
  29 H     1.0000    0     1.008   -3.449537    0.996144    4.501655
  30 C     6.0000    0    12.011   -0.220213   -5.359197    2.727039
  31 C     6.0000    0    12.011    3.499486   -1.658719   -4.793593
  32 H     1.0000    0     1.008    0.450111    4.859058   -3.338920
  33 C     6.0000    0    12.011    2.784269    2.708091   -5.900058
  34 C     6.0000    0    12.011   -1.702627   -5.207102    4.865794
  35 H     1.0000    0     1.008   -4.053179   -2.789494    7.206308
  36 H     1.0000    0     1.008    0.686680   -7.139823    2.222404
  37 C     6.0000    0    12.011    3.885349    0.347215   -6.417132
  38 H     1.0000    0     1.008    4.353205   -3.491207   -5.195201
  39 H     1.0000    0     1.008    3.088458    4.298009   -7.184383
  40 H     1.0000    0     1.008   -1.961513   -6.879234    6.051354
  41 H     1.0000    0     1.008    5.050102    0.086755   -8.103658
  42 O     8.0000    0    15.999   -4.255404    8.216059    3.090021
  43 C     6.0000    0    12.011    2.806187   -5.736462   -1.549812
  44 C     6.0000    0    12.011    5.215906   -6.219931   -0.592704
  45 C     6.0000    0    12.011    1.542774   -7.503045   -3.046219
  46 C     6.0000    0    12.011    6.377512   -8.520837   -1.149183
  47 H     1.0000    0     1.008    6.161178   -4.801320    0.576069
  48 C     6.0000    0    12.011    2.723717   -9.797613   -3.590078
  49 H     1.0000    0     1.008   -0.345010   -7.075855   -3.771117
  50 C     6.0000    0    12.011    5.135142  -10.306502   -2.644496
  51 H     1.0000    0     1.008    8.265545   -8.916007   -0.406347
  52 H     1.0000    0     1.008    1.748707  -11.194416   -4.760946
  53 H     1.0000    0     1.008    6.052865  -12.108079   -3.075693
  54 N     7.0000    0    14.007    1.602493   -3.360446   -0.975739

--------------------------------
INTERNAL COORDINATES (ANGSTROEM)
--------------------------------
 C      0   0   0     0.000000000000     0.00000000     0.00000000
 C      1   0   0     1.398300389745     0.00000000     0.00000000
 C      2   1   0     1.396618532592   121.56284625     0.00000000
 C      3   2   1     1.414594381242   120.03365159     0.08450068
 C      4   3   2     1.419171528342   117.76787184   359.88988736
 C      5   4   3     1.385223689672   121.63524389     0.00000000
 C      4   3   2     1.458592628730   123.61073226   179.16368270
 C      7   4   3     1.460020610467   116.60583967   356.89915811
 C      8   7   4     1.414023793456   123.49753296     3.39585516
 C      9   8   7     1.396835913106   120.01915617   180.41409426
 H     10   9   8     1.096494297643   119.36113274   180.17347827
 C     10   9   8     1.398112808277   121.53742397     0.09579069
 C     12  10   9     1.404261314063   118.79830392   359.93209977
 C     13  12  10     1.385625112192   120.22294434     0.06280286
 H      1   2   3     1.093631855817   120.30011369   179.98509726
 H      2   1   3     1.096270687036   118.96535325   180.06888543
 H      5   4   3     1.093851175685   116.44697253   179.88025217
 H      6   5   4     1.095492130891   119.79577770   180.05988497
 H     12  10   9     1.093717475373   120.29009341   180.01608557
 H     13  12  10     1.095501872426   119.96650215   180.00668290
 H     14  13  12     1.093841414401   121.89235831   179.83859869
 C      9   8   7     1.543240196175   121.38012366     2.65968365
 C     22   9   8     1.515204843722   107.83412873   109.94806974
 C     22   9   8     1.513062431627   108.68291638   231.57692066
 C     23  22   9     1.397382728427   119.34073964   301.47188929
 C     23  22   9     1.418299585236   122.41326671   122.16099283
 C     24  22   9     1.414763160696   122.56927581   238.43646763
 C     24  22   9     1.396800503848   119.12865116    59.20813365
 C     25  23  22     1.389490289066   121.43227113   180.84709686
 H     25  23  22     1.093425123045   118.41788660     0.71947580
 C     26  23  22     1.419976872698   120.21117292   179.05886984
 C     27  24  22     1.418539456204   120.24970651   180.90682780
 H     28  24  22     1.093360693932   118.31925476   359.28542239
 C     28  24  22     1.390067085440   121.45120696   179.20820847
 C     31  26  23     1.379413483276   119.98397389     0.16625706
 H     29  25  23     1.093437341312   119.83447057   179.97137816
 H     31  26  23     1.090636587585   119.91386730   180.03836977
 C     32  27  24     1.380791732143   119.96795209   359.86988789
 H     32  27  24     1.090687649619   119.96592581   179.92614554
 H     34  28  24     1.093472637429   119.90030370   180.01175109
 H     35  31  26     1.093311213515   119.65984497   179.92292611
 H     38  32  27     1.093344765390   119.62672480   180.04096825
 O      7   4   3     1.262404980124   121.69901307   178.95599941
 C     37  31  26     2.407107573839    98.13669092     0.52316618
 C     44  37  31     1.395718919063    93.91199343   117.88288182
 C     44  37  31     1.395690093463    92.33027434   239.56387315
 C     45  44  37     1.395379734926   119.06754470    95.12657350
 H     45  44  37     1.093750100096   119.81679914   275.17091654
 C     46  44  37     1.395609104274   119.02916138   263.98776866
 H     46  44  37     1.093708045914   119.87326073    83.95646388
 C     47  45  44     1.396871666166   120.16469880     0.00000000
 H     47  45  44     1.093827629147   119.56107198   180.02590544
 H     49  46  44     1.093828029771   119.57250298   179.98868577
 H     51  47  45     1.093980369121   119.91606241   180.01176800
 N     26  23  22     1.384854558196   119.99411782   358.92095635

---------------------------
INTERNAL COORDINATES (A.U.)
---------------------------
 C      0   0   0     0.000000000000     0.00000000     0.00000000
 C      1   0   0     2.642404789573     0.00000000     0.00000000
 C      2   1   0     2.639226540158   121.56284625     0.00000000
 C      3   2   1     2.673195971131   120.03365159     0.08450068
 C      4   3   2     2.681845525624   117.76787184   359.88988736
 C      5   4   3     2.617693407700   121.63524389     0.00000000
 C      4   3   2     2.756340609256   123.61073226   179.16368270
 C      7   4   3     2.759039103663   116.60583967   356.89915811
 C      8   7   4     2.672117716481   123.49753296     3.39585516
 C      9   8   7     2.639637329795   120.01915617   180.41409426
 H     10   9   8     2.072073929952   119.36113274   180.17347827
 C     10   9   8     2.642050311971   121.53742397     0.09579069
 C     12  10   9     2.653669304039   118.79830392   359.93209977
 C     13  12  10     2.618451986327   120.22294434     0.06280286
 H      1   2   3     2.066664698826   120.30011369   179.98509726
 H      2   1   3     2.071651367143   118.96535325   180.06888543
 H      5   4   3     2.067079153312   116.44697253   179.88025217
 H      6   5   4     2.070180109249   119.79577770   180.05988497
 H     12  10   9     2.066826496339   120.29009341   180.01608557
 H     13  12  10     2.070198518084   119.96650215   180.00668290
 H     14  13  12     2.067060707159   121.89235831   179.83859869
 C      9   8   7     2.916301329629   121.38012366     2.65968365
 C     22   9   8     2.863322191426   107.83412873   109.94806974
 C     22   9   8     2.859273619300   108.68291638   231.57692066
 C     23  22   9     2.640670661000   119.34073964   301.47188929
 C     23  22   9     2.680197791951   122.41326671   122.16099283
 C     24  22   9     2.673514918077   122.56927581   238.43646763
 C     24  22   9     2.639570415996   119.12865116    59.20813365
 C     25  23  22     2.625756112078   121.43227113   180.84709686
 H     25  23  22     2.066274030505   118.41788660     0.71947580
 C     26  23  22     2.683367405902   120.21117292   179.05886984
 C     27  24  22     2.680651082387   120.24970651   180.90682780
 H     28  24  22     2.066152277125   118.31925476   359.28542239
 C     28  24  22     2.626846099260   121.45120696   179.20820847
 C     31  26  23     2.606713708831   119.98397389     0.16625706
 H     29  25  23     2.066297119683   119.83447057   179.97137816
 H     31  26  23     2.061004462171   119.91386730   180.03836977
 C     32  27  24     2.609318221734   119.96795209   359.86988789
 H     32  27  24     2.061100955431   119.96592581   179.92614554
 H     34  28  24     2.066363819678   119.90030370   180.01175109
 H     35  31  26     2.066058772689   119.65984497   179.92292611
 H     38  32  27     2.066122176544   119.62672480   180.04096825
 O      7   4   3     2.385599682532   121.69901307   178.95599941
 C     37  31  26     4.548774089443    98.13669092     0.52316618
 C     44  37  31     2.637526516962    93.91199343   117.88288182
 C     44  37  31     2.637472044472    92.33027434   239.56387315
 C     45  44  37     2.636885551833   119.06754470    95.12657350
 H     45  44  37     2.066888148130   119.81679914   275.17091654
 C     46  44  37     2.637318997086   119.02916138   263.98776866
 H     46  44  37     2.066808677244   119.87326073    83.95646388
 C     47  45  44     2.639704893288   120.16469880     0.00000000
 H     47  45  44     2.067034656804   119.56107198   180.02590544
 H     49  46  44     2.067035413873   119.57250298   179.98868577
 H     51  47  45     2.067323293524   119.91606241   180.01176800
 N     26  23  22     2.616995850302   119.99411782   358.92095635

---------------------
BASIS SET INFORMATION
---------------------
There are 4 groups of distinct atoms

 Group   1 Type C   : 7s4p1d contracted to 3s2p1d pattern {511/31/1}
 Group   2 Type H   : 4s1p contracted to 2s1p pattern {31/1}
 Group   3 Type O   : 7s4p1d contracted to 3s2p1d pattern {511/31/1}
 Group   4 Type N   : 7s4p1d contracted to 3s2p1d pattern {511/31/1}

Atom   0C    basis set group =>   1
Atom   1C    basis set group =>   1
Atom   2C    basis set group =>   1
Atom   3C    basis set group =>   1
Atom   4C    basis set group =>   1
Atom   5C    basis set group =>   1
Atom   6C    basis set group =>   1
Atom   7C    basis set group =>   1
Atom   8C    basis set group =>   1
Atom   9C    basis set group =>   1
Atom  10H    basis set group =>   2
Atom  11C    basis set group =>   1
Atom  12C    basis set group =>   1
Atom  13C    basis set group =>   1
Atom  14H    basis set group =>   2
Atom  15H    basis set group =>   2
Atom  16H    basis set group =>   2
Atom  17H    basis set group =>   2
Atom  18H    basis set group =>   2
Atom  19H    basis set group =>   2
Atom  20H    basis set group =>   2
Atom  21C    basis set group =>   1
Atom  22C    basis set group =>   1
Atom  23C    basis set group =>   1
Atom  24C    basis set group =>   1
Atom  25C    basis set group =>   1
Atom  26C    basis set group =>   1
Atom  27C    basis set group =>   1
Atom  28C    basis set group =>   1
Atom  29H    basis set group =>   2
Atom  30C    basis set group =>   1
Atom  31C    basis set group =>   1
Atom  32H    basis set group =>   2
Atom  33C    basis set group =>   1
Atom  34C    basis set group =>   1
Atom  35H    basis set group =>   2
Atom  36H    basis set group =>   2
Atom  37C    basis set group =>   1
Atom  38H    basis set group =>   2
Atom  39H    basis set group =>   2
Atom  40H    basis set group =>   2
Atom  41H    basis set group =>   2
Atom  42O    basis set group =>   3
Atom  43C    basis set group =>   1
Atom  44C    basis set group =>   1
Atom  45C    basis set group =>   1
Atom  46C    basis set group =>   1
Atom  47H    basis set group =>   2
Atom  48C    basis set group =>   1
Atom  49H    basis set group =>   2
Atom  50C    basis set group =>   1
Atom  51H    basis set group =>   2
Atom  52H    basis set group =>   2
Atom  53H    basis set group =>   2
Atom  54N    basis set group =>   4
---------------------------------
AUXILIARY/J BASIS SET INFORMATION
---------------------------------
There are 4 groups of distinct atoms

 Group   1 Type C   : 12s5p4d2f1g contracted to 6s4p3d1f1g pattern {711111/2111/211/2/1}
 Group   2 Type H   : 5s2p1d contracted to 3s1p1d pattern {311/2/1}
 Group   3 Type O   : 12s5p4d2f1g contracted to 6s4p3d1f1g pattern {711111/2111/211/2/1}
 Group   4 Type N   : 12s5p4d2f1g contracted to 6s4p3d1f1g pattern {711111/2111/211/2/1}

Atom   0C    basis set group =>   1
Atom   1C    basis set group =>   1
Atom   2C    basis set group =>   1
Atom   3C    basis set group =>   1
Atom   4C    basis set group =>   1
Atom   5C    basis set group =>   1
Atom   6C    basis set group =>   1
Atom   7C    basis set group =>   1
Atom   8C    basis set group =>   1
Atom   9C    basis set group =>   1
Atom  10H    basis set group =>   2
Atom  11C    basis set group =>   1
Atom  12C    basis set group =>   1
Atom  13C    basis set group =>   1
Atom  14H    basis set group =>   2
Atom  15H    basis set group =>   2
Atom  16H    basis set group =>   2
Atom  17H    basis set group =>   2
Atom  18H    basis set group =>   2
Atom  19H    basis set group =>   2
Atom  20H    basis set group =>   2
Atom  21C    basis set group =>   1
Atom  22C    basis set group =>   1
Atom  23C    basis set group =>   1
Atom  24C    basis set group =>   1
Atom  25C    basis set group =>   1
Atom  26C    basis set group =>   1
Atom  27C    basis set group =>   1
Atom  28C    basis set group =>   1
Atom  29H    basis set group =>   2
Atom  30C    basis set group =>   1
Atom  31C    basis set group =>   1
Atom  32H    basis set group =>   2
Atom  33C    basis set group =>   1
Atom  34C    basis set group =>   1
Atom  35H    basis set group =>   2
Atom  36H    basis set group =>   2
Atom  37C    basis set group =>   1
Atom  38H    basis set group =>   2
Atom  39H    basis set group =>   2
Atom  40H    basis set group =>   2
Atom  41H    basis set group =>   2
Atom  42O    basis set group =>   3
Atom  43C    basis set group =>   1
Atom  44C    basis set group =>   1
Atom  45C    basis set group =>   1
Atom  46C    basis set group =>   1
Atom  47H    basis set group =>   2
Atom  48C    basis set group =>   1
Atom  49H    basis set group =>   2
Atom  50C    basis set group =>   1
Atom  51H    basis set group =>   2
Atom  52H    basis set group =>   2
Atom  53H    basis set group =>   2
Atom  54N    basis set group =>   4


           ************************************************************
           *        Program running with 16 parallel MPI-processes    *
           *              working on a common directory               *
           ************************************************************
------------------------------------------------------------------------------
                             ORCA STARTUP CALCULATIONS
                           -- RI-GTO INTEGRALS CHOSEN --
------------------------------------------------------------------------------
------------------------------------------------------------------------------
                   ___                                                        
                  /   \      - P O W E R E D   B Y -                         
                 /     \                                                     
                 |  |  |   _    _      __       _____    __    __             
                 |  |  |  | |  | |    /  \     |  _  \  |  |  /  |          
                  \  \/   | |  | |   /    \    | | | |  |  | /  /          
                 / \  \   | |__| |  /  /\  \   | |_| |  |  |/  /          
                |  |  |   |  __  | /  /__\  \  |    /   |      \           
                |  |  |   | |  | | |   __   |  |    \   |  |\   \          
                \     /   | |  | | |  |  |  |  | |\  \  |  | \   \       
                 \___/    |_|  |_| |__|  |__|  |_| \__\ |__|  \__/        
                                                                              
                      - O R C A' S   B I G   F R I E N D -                    
                                      &                                       
                       - I N T E G R A L  F E E D E R -                       
                                                                              
 v1 FN, 2020, v2 2021, v3 2022-2024                                           
------------------------------------------------------------------------------


----------------------
SHARK INTEGRAL PACKAGE
----------------------

Number of atoms                             ...     55
Number of basis functions                   ...    581
Number of shells                            ...    267
Maximum angular momentum                    ...      2
Integral batch strategy                     ... SHARK/LIBINT Hybrid
RI-J (if used) integral strategy            ... SPLIT-RIJ (Revised 2003 algorithm where possible)
Printlevel                                  ...      1
Contraction scheme used                     ... SEGMENTED contraction
Prescreening option                         ... SCHWARTZ
   Thresh                                   ... 1.000e-10
   Tcut                                     ... 1.000e-11
   Tpresel                                  ... 1.000e-11 
Coulomb Range Separation                    ... NOT USED
Exchange Range Separation                   ... Long Range
   Mu parameter                             ... 6.924e-02
   Scaling (regular/separated)              ... 2.000e-01 8.000e-01
Multipole approximations                    ... NOT USED
Finite Nucleus Model                        ... NOT USED
CABS basis                                  ... NOT available
Auxiliary Coulomb fitting basis             ... AVAILABLE
   # of basis functions in Aux-J            ...   1897
   # of shells in Aux-J                     ...    615
   Maximum angular momentum in Aux-J        ...      4
Auxiliary J/K fitting basis                 ... NOT available
Auxiliary Correlation fitting basis         ... NOT available
Auxiliary 'external' fitting basis          ... NOT available

Checking pre-screening integrals            ... done (  0.0 sec) Dimension = 267
Check shell pair data                       ... done (  0.0 sec)
Shell pair information
Shell pair cut-off parameter TPreSel        ...   1.0e-11
Total number of shell pairs                 ...     35778
Shell pairs after pre-screening             ...     24617
Total number of primitive shell pairs       ...    132346
Primitive shell pairs kept                  ...     55122
          la=0 lb=0:   7298 shell pairs
          la=1 lb=0:   9152 shell pairs
          la=1 lb=1:   2926 shell pairs
          la=2 lb=0:   3010 shell pairs
          la=2 lb=1:   1937 shell pairs
          la=2 lb=2:    294 shell pairs

Calculating one electron integrals          ... done (  0.0 sec)
Calculating RI/J V-Matrix + Cholesky decomp.... done (  0.2 sec)
Calculating Nuclear repulsion               ... done (  0.0 sec) ENN=   3358.000010531614 Eh

Diagonalization of the overlap matrix:
Smallest eigenvalue                        ... 1.891e-04
Time for diagonalization                   ...    0.034 sec
Threshold for overlap eigenvalues          ... 1.000e-07
Number of eigenvalues below threshold      ... 0
Time for construction of square roots      ...    0.021 sec
Total time needed                          ...    0.064 sec

-------------------
DFT GRID GENERATION
-------------------

General Integration Accuracy     IntAcc      ... 4.388
Radial Grid Type                 RadialGrid  ... OptM3 with GC (2021)
Angular Grid (max. ang.)         AngularGrid ... 4 (Lebedev-302)
Angular grid pruning method      GridPruning ... 4 (adaptive)
Weight generation scheme         WeightScheme... mBecke (2022)
Basis function cutoff            BFCut       ... 1.0000e-10
Integration weight cutoff        WCut        ... 1.0000e-14
Partially contracted basis set               ... off
Rotationally invariant grid construction     ... off
Angular grids for H and He will be reduced by one unit

Total number of grid points                  ...   268114
Total number of batches                      ...     4216
Average number of points per batch           ...       63
Average number of grid points per atom       ...     4875

--------------------
COSX GRID GENERATION
--------------------

GRIDX 1
-------
General Integration Accuracy     IntAcc      ... 3.816
Radial Grid Type                 RadialGrid  ... OptM3 with GC (2021)
Angular Grid (max. ang.)         AngularGrid ... 1 (Lebedev-50)
Angular grid pruning method      GridPruning ... 4 (adaptive)
Weight generation scheme         WeightScheme... mBecke (2022)
Basis function cutoff            BFCut       ... 1.0000e-10
Integration weight cutoff        WCut        ... 1.0000e-14
Partially contracted basis set               ... on
Rotationally invariant grid construction     ... off
Angular grids for H and He will be reduced by one unit

Total number of grid points                  ...    33910
Total number of batches                      ...      288
Average number of points per batch           ...      117
Average number of grid points per atom       ...      617
UseSFitting                                  ... on

GRIDX 2
-------
General Integration Accuracy     IntAcc      ... 4.020
Radial Grid Type                 RadialGrid  ... OptM3 with GC (2021)
Angular Grid (max. ang.)         AngularGrid ... 2 (Lebedev-110)
Angular grid pruning method      GridPruning ... 4 (adaptive)
Weight generation scheme         WeightScheme... mBecke (2022)
Basis function cutoff            BFCut       ... 1.0000e-10
Integration weight cutoff        WCut        ... 1.0000e-14
Partially contracted basis set               ... on
Rotationally invariant grid construction     ... off
Angular grids for H and He will be reduced by one unit

Total number of grid points                  ...    73783
Total number of batches                      ...      601
Average number of points per batch           ...      122
Average number of grid points per atom       ...     1342
UseSFitting                                  ... on

GRIDX 3
-------
General Integration Accuracy     IntAcc      ... 4.338
Radial Grid Type                 RadialGrid  ... OptM3 with GC (2021)
Angular Grid (max. ang.)         AngularGrid ... 3 (Lebedev-194)
Angular grid pruning method      GridPruning ... 4 (adaptive)
Weight generation scheme         WeightScheme... mBecke (2022)
Basis function cutoff            BFCut       ... 1.0000e-10
Integration weight cutoff        WCut        ... 1.0000e-14
Partially contracted basis set               ... on
Rotationally invariant grid construction     ... off
Angular grids for H and He will be reduced by one unit

Total number of grid points                  ...   161186
Total number of batches                      ...     1290
Average number of points per batch           ...      124
Average number of grid points per atom       ...     2931
UseSFitting                                  ... on
Initializing property integral containers    ... done (  0.1 sec)

SHARK setup successfully completed in   3.3 seconds

Maximum memory used throughout the entire STARTUP-calculation: 76.1 MB


           ************************************************************
           *        Program running with 16 parallel MPI-processes    *
           *              working on a common directory               *
           ************************************************************
-------------------------------------------------------------------------------
                                 ORCA GUESS
                   Start orbitals & Density for SCF / CASSCF
-------------------------------------------------------------------------------

------------
SCF SETTINGS
------------
Hamiltonian:
 Density Functional     Method          .... DFT(GTOs)
  Functional kind                       .... Exchange-Correlation
  Functional name                       .... Long-range corrected short-range hybrid PBE (LRC-wPBEh) by Rohrdanz, Martins and Herbert
  Functional family                     .... Hybrid GGA
  Functional refs                              
    [ 0] M. A. Rohrdanz, K. M. Martins, and J. M. Herbert.,  J. Chem. Phys. 130, 054112 (2009), doi: 10.1063/1.3073302
  Fraction of HF Exchange (short range) .... 0.2000
  Fraction of HF Exchange (long range)  .... 1.0000
  Range separation parameter mu         .... 0.0692
  Functional external parameters        .... 3
    Parameter  0 _alpha     =  1.000000e+00 : Fraction of Hartree-Fock exchange
    Parameter  1 _beta      = -8.000000e-01 : Fraction of short-range exact exchange
    Parameter  2 _omega     =  6.924172e-02 : Range separation constant
 Long-range corrected/Screened/Range-Separated Hybrid DFT is turned on
   Amount of maximum screened exact exchange              ....  0.800000
   Range separation parameter mu (erf(mu*r12)/r12)        ....  0.069242
 RI-approximation to the Coulomb term is turned on
   Number of AuxJ basis functions       .... 1897
   RIJ-COSX (HFX calculated with COS-X)).... on


General Settings:
 Integral files         IntName         .... P7
 Hartree-Fock type      HFTyp           .... RHF
 Total Charge           Charge          ....    0
 Multiplicity           Mult            ....    1
 Number of Electrons    NEL             ....  228
 Basis Dimension        Dim             ....  581
 Nuclear Repulsion      ENuc            ....   3358.0000105316 Eh

Convergence Acceleration:
 AO-DIIS                CNVDIIS         .... on
   Start iteration      DIISMaxIt       ....    12
   Startup error        DIISStart       ....  0.200000
   # of expansion vecs  DIISMaxEq       ....     5
   Bias factor          DIISBfac        ....   1.050
   Max. coefficient     DIISMaxC        ....  10.000
 MO-DIIS                CNVKDIIS        .... off
 Trust-Rad. Augm. Hess. CNVTRAH         .... auto
   Auto Start mean grad. ratio tolernc. ....  1.125000
   Auto Start start iteration           ....    50
   Auto Start num. interpolation iter.  ....    10
   Max. Number of Micro iterations      ....    24
   Max. Number of Macro iterations      .... Maxiter - #DIIS iter
   Number of Davidson start vectors     ....     2
   Converg. threshold    (grad. norm)   ....   5.000e-05
   Grad. Scal. Fac. for Micro threshold ....   0.100
   Minimum threshold for Micro iter.    ....   1.000e-02
   NR start threshold (gradient norm)   ....   1.000e-04
   Initial trust radius                 ....   0.400
   Minimum AH scaling param. (alpha)    ....   1.000
   Maximum AH scaling param. (alpha)    .... 1000.000
   Quad. conv. algorithm                .... NR
   White noise on init. David. guess    .... on
   Maximum white noise                  ....   0.010
   Pseudo random numbers                .... off
   Inactive MOs                         .... canonical
   Orbital update algorithm             .... Taylor
   Preconditioner                       .... Diag
   Full preconditioner red. dimension   ....   250
 SOSCF                  CNVSOSCF        .... on
   Start iteration      SOSCFMaxIt      ....   150
   Startup grad/error   SOSCFStart      ....  0.003300
   Hessian update       SOSCFHessUp     .... L-BFGS
 Level Shifting         CNVShift        .... on
   Level shift para.    LevelShift      ....    0.2500
   Turn off err/grad.   ShiftErr        ....    0.0010
 Zerner damping         CNVZerner       .... off
 Static damping         CNVDamp         .... on
   Fraction old density DampFac         ....    0.7000
   Max. Damping (<1)    DampMax         ....    0.9800
   Min. Damping (>=0)   DampMin         ....    0.0000
   Turn off err/grad.   DampErr         ....    0.1000

SCF Procedure:
 Maximum # iterations   MaxIter         ....   300
 SCF integral mode      SCFMode         .... Direct
   Integral package                     .... SHARK and LIBINT hybrid scheme
 Reset frequency        DirectResetFreq ....    20
 Integral Threshold     Thresh          ....  1.000e-10 Eh
 Primitive CutOff       TCut            ....  1.000e-11 Eh

Convergence Tolerance:
 Convergence Check Mode ConvCheckMode   .... Total+1el-Energy
 Convergence forced     ConvForced      .... 1
 Energy Change          TolE            ....  1.000e-06 Eh
 1-El. energy change                    ....  1.000e-03 Eh
 Orbital Gradient       TolG            ....  5.000e-05
 Orbital Rotation angle TolX            ....  5.000e-05
 DIIS Error             TolErr          ....  1.000e-06

------------------------------
INITIAL GUESS: MODEL POTENTIAL
------------------------------
Loading Hartree-Fock densities                     ... done
Calculating cut-offs                               ... done
Initializing the effective Hamiltonian             ... done
Setting up the integral package (SHARK)            ... done
Starting the Coulomb interaction                   ... done (   0.2 sec)
Making the grid                                    ... done (   0.4 sec)
Mapping shells                                     ... done
Starting the XC term evaluation                    ... done (   0.1 sec)
  promolecular density results
     # of electrons  =    227.974454820
     EX+EC           =   -148.282951022
Transforming the Hamiltonian                       ... done (   0.0 sec)
Diagonalizing the Hamiltonian                      ... done (   0.0 sec)
Back transforming the eigenvectors                 ... done (   0.0 sec)
Now organizing SCF variables                       ... done
                      ------------------
                      INITIAL GUESS DONE (   0.9 sec)
                      ------------------
             **** ENERGY FILE WAS UPDATED (P7.en.tmp) ****
Finished Guess after   2.0 sec
Maximum memory used throughout the entire GUESS-calculation: 47.5 MB


           ************************************************************
           *        Program running with 16 parallel MPI-processes    *
           *              working on a common directory               *
           ************************************************************

-------------------------------------------------------------------------------------------
                                      ORCA LEAN-SCF
                              memory conserving SCF solver
-------------------------------------------------------------------------------------------

--------------------
CPCM SOLVATION MODEL
--------------------
CPCM parameters:
  Epsilon                                         ...       2.3870
  Refrac                                          ...       1.4961
  Rsolv                                           ...       1.3000
  Surface type                                    ... GAUSSIAN VDW
  Discretization scheme                           ... Constant charge density
    Threshold for H atoms                         ...       5.0000 (charges/Ang^2)
    Threshold for non-H atoms                     ...       5.0000 (charges/Ang^2)
  Epsilon function type                           ...         CPCM
Solvent:                                          ... TOLUENE
Radii:
  Scheme                                          ... Element-dependent radii
  Radius for C  used is    3.8550 Bohr (=   2.0400 Ang.)
  Radius for H  used is    2.4944 Bohr (=   1.3200 Ang.)
  Radius for O  used is    3.4469 Bohr (=   1.8240 Ang.)
  Radius for N  used is    3.5149 Bohr (=   1.8600 Ang.)
Calculating surface                               ...        done! (  0.0s)
Cavity surface points                             ...         4689
Cavity Volume                                     ...    3445.7979
Cavity Surface-area                               ...    1604.6502
Calculating surface distance matrix               ...        done! (  0.1s)
Performing Cholesky decomposition & store         ...        done! (  0.4s)
Overall time for CPCM initialization              ...                 0.5s

----------------------------------------D-I-I-S--------------------------------------------
Iteration    Energy (Eh)           Delta-E    RMSDP     MaxDP     DIISErr   Damp  Time(sec)
-------------------------------------------------------------------------------------------
               ***  Starting incremental Fock matrix formation  ***
    1    -1359.3793635169258778     0.00e+00  1.09e-03  1.24e-01  6.76e-02  0.700   7.2
    2    -1359.4399797060341371    -6.06e-02  7.92e-04  8.77e-02  4.59e-02  0.700   3.7
                               ***Turning on AO-DIIS***
    3    -1359.4684643998634783    -2.85e-02  5.01e-04  6.03e-02  3.12e-02  0.700   3.6
    4    -1359.4870676596046906    -1.86e-02  1.22e-03  1.56e-01  2.22e-02  0.000   3.5
    5    -1359.5300129827473938    -4.29e-02  1.05e-04  6.93e-03  4.09e-03  0.000   3.6
                              *** Initializing SOSCF ***
---------------------------------------S-O-S-C-F--------------------------------------
Iteration    Energy (Eh)           Delta-E    RMSDP     MaxDP     MaxGrad    Time(sec)
--------------------------------------------------------------------------------------
    6    -1359.5303157610742346    -3.03e-04  3.21e-05  2.12e-03  1.49e-03     3.6
               *** Restarting incremental Fock matrix formation ***
    7    -1359.5303437401034898    -2.80e-05  3.82e-05  2.64e-03  4.69e-04     7.0
    8    -1359.5303368868462712     6.85e-06  2.01e-05  1.82e-03  7.99e-04     4.1
    9    -1359.5303544146991044    -1.75e-05  6.27e-06  4.17e-04  6.05e-05     3.7
   10    -1359.5303542420106169     1.73e-07  2.96e-06  1.41e-04  7.53e-05     3.5
                 **** Energy Check signals convergence ****

               *****************************************************
               *                     SUCCESS                       *
               *           SCF CONVERGED AFTER  10 CYCLES          *
               *****************************************************

Recomputing exchange energy using gridx3       ... done (   10.151 sec)
Old exchange energy                            :    -44.647681247 Eh
New exchange energy                            :    -44.647802229 Eh
Exchange energy change after final integration :     -0.000120982 Eh
Total energy after final integration           :  -1359.530475224 Eh
             **** ENERGY FILE WAS UPDATED (P7.en.tmp) ****

----------------
TOTAL SCF ENERGY
----------------

Total Energy       :      -1359.53047522442580 Eh          -36994.70501 eV

Components:
Nuclear Repulsion  :       3358.00001053161395 Eh           91375.82574 eV
Electronic Energy  :      -4717.51924258302552 Eh         -128370.22481 eV
One Electron Energy:      -8522.08016220239188 Eh         -231897.59066 eV
Two Electron Energy:       3804.56091961936636 Eh          103527.36585 eV
CPCM Dielectric    :         -0.01112219059875 Eh              -0.30265 eV

Virial components:
Potential Energy   :      -2704.55674480258403 Eh          -73594.73051 eV
Kinetic Energy     :       1345.02626957815801 Eh           36600.02550 eV
Virial Ratio       :          2.01078358540225

DFT components:
N(Alpha)           :      113.999694955303 electrons
N(Beta)            :      113.999694955303 electrons
N(Total)           :      227.999389910605 electrons
E(XC)              :     -150.489788928520 Eh       

CPCM Solvation Model Properties:
Surface-charge          :         -0.03072760374218
Corrected charge        :         -0.00000000000000
Outlying charge corr.   :          0.00002606971645 Eh               0.00071 eV
Free-energy (cav+disp)  :  This term is not implemented in the current solvation scheme

---------------
SCF CONVERGENCE
---------------

  Last Energy change         ...   -1.7269e-07  Tolerance :   1.0000e-06
  Last MAX-Density change    ...    1.4078e-04  Tolerance :   1.0000e-05
  Last RMS-Density change    ...    2.9617e-06  Tolerance :   1.0000e-06
  Last DIIS Error            ...    1.4919e-03  Tolerance :   1.0000e-06
  Last Orbital Gradient      ...    7.5273e-05  Tolerance :   5.0000e-05
  Last Orbital Rotation      ...    1.4731e-04  Tolerance :   5.0000e-05


----------------
ORBITAL ENERGIES
----------------

  NO   OCC          E(Eh)            E(eV) 
   0   2.0000     -19.136636      -520.7343 
   1   2.0000     -14.391509      -391.6129 
   2   2.0000     -10.285305      -279.8774 
   3   2.0000     -10.253028      -278.9991 
   4   2.0000     -10.252902      -278.9956 
   5   2.0000     -10.252312      -278.9796 
   6   2.0000     -10.244897      -278.7778 
   7   2.0000     -10.230678      -278.3909 
   8   2.0000     -10.230521      -278.3866 
   9   2.0000     -10.217162      -278.0231 
  10   2.0000     -10.217059      -278.0203 
  11   2.0000     -10.216981      -278.0182 
  12   2.0000     -10.216890      -278.0157 
  13   2.0000     -10.216352      -278.0011 
  14   2.0000     -10.216212      -277.9973 
  15   2.0000     -10.215948      -277.9901 
  16   2.0000     -10.215545      -277.9791 
  17   2.0000     -10.215417      -277.9756 
  18   2.0000     -10.215313      -277.9728 
  19   2.0000     -10.215110      -277.9673 
  20   2.0000     -10.211479      -277.8685 
  21   2.0000     -10.211349      -277.8649 
  22   2.0000     -10.211045      -277.8567 
  23   2.0000     -10.210968      -277.8546 
  24   2.0000     -10.209438      -277.8129 
  25   2.0000     -10.209253      -277.8079 
  26   2.0000     -10.204424      -277.6765 
  27   2.0000     -10.204083      -277.6672 
  28   2.0000     -10.203482      -277.6509 
  29   2.0000     -10.203436      -277.6496 
  30   2.0000     -10.202402      -277.6215 
  31   2.0000     -10.201567      -277.5988 
  32   2.0000     -10.196914      -277.4721 
  33   2.0000     -10.196013      -277.4476 
  34   2.0000      -1.043736       -28.4015 
  35   2.0000      -1.020148       -27.7596 
  36   2.0000      -0.926732       -25.2176 
  37   2.0000      -0.899869       -24.4867 
  38   2.0000      -0.893256       -24.3067 
  39   2.0000      -0.891634       -24.2626 
  40   2.0000      -0.878082       -23.8938 
  41   2.0000      -0.846417       -23.0322 
  42   2.0000      -0.815770       -22.1982 
  43   2.0000      -0.794631       -21.6230 
  44   2.0000      -0.792796       -21.5731 
  45   2.0000      -0.790106       -21.4999 
  46   2.0000      -0.787314       -21.4239 
  47   2.0000      -0.780937       -21.2504 
  48   2.0000      -0.779082       -21.1999 
  49   2.0000      -0.772291       -21.0151 
  50   2.0000      -0.748470       -20.3669 
  51   2.0000      -0.713935       -19.4272 
  52   2.0000      -0.686078       -18.6691 
  53   2.0000      -0.676761       -18.4156 
  54   2.0000      -0.667701       -18.1691 
  55   2.0000      -0.655431       -17.8352 
  56   2.0000      -0.652114       -17.7449 
  57   2.0000      -0.640391       -17.4259 
  58   2.0000      -0.627672       -17.0798 
  59   2.0000      -0.626026       -17.0350 
  60   2.0000      -0.613099       -16.6833 
  61   2.0000      -0.590213       -16.0605 
  62   2.0000      -0.584315       -15.9000 
  63   2.0000      -0.575695       -15.6655 
  64   2.0000      -0.573693       -15.6110 
  65   2.0000      -0.570980       -15.5372 
  66   2.0000      -0.542957       -14.7746 
  67   2.0000      -0.528182       -14.3726 
  68   2.0000      -0.514688       -14.0054 
  69   2.0000      -0.506375       -13.7792 
  70   2.0000      -0.504790       -13.7360 
  71   2.0000      -0.502067       -13.6619 
  72   2.0000      -0.500765       -13.6265 
  73   2.0000      -0.495840       -13.4925 
  74   2.0000      -0.493932       -13.4406 
  75   2.0000      -0.492799       -13.4098 
  76   2.0000      -0.475342       -12.9347 
  77   2.0000      -0.472429       -12.8554 
  78   2.0000      -0.469500       -12.7757 
  79   2.0000      -0.464937       -12.6516 
  80   2.0000      -0.461025       -12.5451 
  81   2.0000      -0.460000       -12.5172 
  82   2.0000      -0.457003       -12.4357 
  83   2.0000      -0.453971       -12.3532 
  84   2.0000      -0.453651       -12.3445 
  85   2.0000      -0.443434       -12.0665 
  86   2.0000      -0.436408       -11.8753 
  87   2.0000      -0.435508       -11.8508 
  88   2.0000      -0.425193       -11.5701 
  89   2.0000      -0.415214       -11.2985 
  90   2.0000      -0.413018       -11.2388 
  91   2.0000      -0.408227       -11.1084 
  92   2.0000      -0.404503       -11.0071 
  93   2.0000      -0.402658       -10.9569 
  94   2.0000      -0.393507       -10.7079 
  95   2.0000      -0.391123       -10.6430 
  96   2.0000      -0.389674       -10.6036 
  97   2.0000      -0.384294       -10.4572 
  98   2.0000      -0.383599       -10.4382 
  99   2.0000      -0.377233       -10.2650 
 100   2.0000      -0.373360       -10.1596 
 101   2.0000      -0.360591        -9.8122 
 102   2.0000      -0.355230        -9.6663 
 103   2.0000      -0.320068        -8.7095 
 104   2.0000      -0.307774        -8.3749 
 105   2.0000      -0.302637        -8.2352 
 106   2.0000      -0.299544        -8.1510 
 107   2.0000      -0.297080        -8.0840 
 108   2.0000      -0.292685        -7.9644 
 109   2.0000      -0.291941        -7.9441 
 110   2.0000      -0.291552        -7.9335 
 111   2.0000      -0.285741        -7.7754 
 112   2.0000      -0.273449        -7.4409 
 113   2.0000      -0.226758        -6.1704 
 114   0.0000      -0.057898        -1.5755 
 115   0.0000      -0.012934        -0.3520 
 116   0.0000       0.000233         0.0063 
 117   0.0000       0.001032         0.0281 
 118   0.0000       0.003210         0.0873 
 119   0.0000       0.003718         0.1012 
 120   0.0000       0.015353         0.4178 
 121   0.0000       0.024259         0.6601 
 122   0.0000       0.032599         0.8871 
 123   0.0000       0.052700         1.4340 
 124   0.0000       0.081752         2.2246 
*Only the first 10 virtual orbitals were printed.

                    ********************************
                    * MULLIKEN POPULATION ANALYSIS *
                    ********************************

-----------------------
MULLIKEN ATOMIC CHARGES
-----------------------
   0 C :    0.005037
   1 C :   -0.040582
   2 C :    0.094846
   3 C :   -0.082382
   4 C :   -0.019566
   5 C :   -0.007347
   6 C :    0.194527
   7 C :   -0.081058
   8 C :    0.072947
   9 C :   -0.035483
  10 H :    0.028322
  11 C :    0.004072
  12 C :   -0.007007
  13 C :   -0.019708
  14 H :    0.036938
  15 H :    0.029455
  16 H :    0.025477
  17 H :    0.035479
  18 H :    0.037445
  19 H :    0.035608
  20 H :    0.025411
  21 C :   -0.095865
  22 C :   -0.000606
  23 C :   -0.060837
  24 C :   -0.032455
  25 C :    0.143796
  26 C :    0.146418
  27 C :   -0.026018
  28 C :   -0.027389
  29 H :    0.020222
  30 C :   -0.057517
  31 C :   -0.057015
  32 H :    0.018700
  33 C :   -0.022958
  34 C :   -0.008451
  35 H :    0.021990
  36 H :    0.028095
  37 C :   -0.008113
  38 H :    0.027737
  39 H :    0.022116
  40 H :    0.026991
  41 H :    0.026985
  42 O :   -0.274612
  43 C :   -0.081595
  44 C :    0.053801
  45 C :    0.053429
  46 C :   -0.031220
  47 H :    0.026293
  48 C :   -0.031616
  49 H :    0.025970
  50 C :   -0.005251
  51 H :    0.036010
  52 H :    0.036185
  53 H :    0.036412
  54 N :   -0.262064
Sum of atomic charges:    0.0000000

--------------------------------
MULLIKEN REDUCED ORBITAL CHARGES
--------------------------------
  0 C s       :     3.182465  s :     3.182465
      pz      :     0.949952  p :     2.778163
      px      :     0.875005
      py      :     0.953206
      dz2     :     0.005668  d :     0.034335
      dxz     :     0.005111
      dyz     :     0.006176
      dx2y2   :     0.009382
      dxy     :     0.007998

  1 C s       :     3.244014  s :     3.244014
      pz      :     0.930977  p :     2.763355
      px      :     0.956995
      py      :     0.875383
      dz2     :     0.004872  d :     0.033213
      dxz     :     0.006952
      dyz     :     0.004435
      dx2y2   :     0.008442
      dxy     :     0.008512

  2 C s       :     3.074495  s :     3.074495
      pz      :     0.953243  p :     2.789764
      px      :     0.874951
      py      :     0.961570
      dz2     :     0.005427  d :     0.040895
      dxz     :     0.008077
      dyz     :     0.006325
      dx2y2   :     0.010515
      dxy     :     0.010551

  3 C s       :     3.124037  s :     3.124037
      pz      :     0.986191  p :     2.920030
      px      :     0.954986
      py      :     0.978853
      dz2     :     0.005989  d :     0.038315
      dxz     :     0.006385
      dyz     :     0.006404
      dx2y2   :     0.010520
      dxy     :     0.009018

  4 C s       :     3.267510  s :     3.267510
      pz      :     0.940057  p :     2.718475
      px      :     0.878212
      py      :     0.900206
      dz2     :     0.004998  d :     0.033580
      dxz     :     0.007258
      dyz     :     0.004157
      dx2y2   :     0.007629
      dxy     :     0.009539

  5 C s       :     3.169064  s :     3.169064
      pz      :     0.943962  p :     2.804270
      px      :     0.939388
      py      :     0.920919
      dz2     :     0.003718  d :     0.034013
      dxz     :     0.006755
      dyz     :     0.005087
      dx2y2   :     0.008777
      dxy     :     0.009677

  6 C s       :     3.049075  s :     3.049075
      pz      :     0.860900  p :     2.665362
      px      :     0.927698
      py      :     0.876765
      dz2     :     0.013575  d :     0.091036
      dxz     :     0.011638
      dyz     :     0.018164
      dx2y2   :     0.024227
      dxy     :     0.023432

  7 C s       :     3.123855  s :     3.123855
      pz      :     1.003850  p :     2.918871
      px      :     0.908980
      py      :     1.006041
      dz2     :     0.004984  d :     0.038333
      dxz     :     0.007602
      dyz     :     0.006739
      dx2y2   :     0.009256
      dxy     :     0.009753

  8 C s       :     3.087695  s :     3.087695
      pz      :     0.919432  p :     2.798498
      px      :     0.932686
      py      :     0.946379
      dz2     :     0.006723  d :     0.040860
      dxz     :     0.007598
      dyz     :     0.007180
      dx2y2   :     0.009911
      dxy     :     0.009447

  9 C s       :     3.246781  s :     3.246781
      pz      :     0.968967  p :     2.755469
      px      :     0.886680
      py      :     0.899822
      dz2     :     0.005258  d :     0.033232
      dxz     :     0.007194
      dyz     :     0.004682
      dx2y2   :     0.007572
      dxy     :     0.008526

 10 H s       :     0.947936  s :     0.947936
      pz      :     0.005731  p :     0.023741
      px      :     0.005865
      py      :     0.012145

 11 C s       :     3.182753  s :     3.182753
      pz      :     0.914988  p :     2.778834
      px      :     0.939764
      py      :     0.924082
      dz2     :     0.004062  d :     0.034341
      dxz     :     0.006880
      dyz     :     0.005628
      dx2y2   :     0.008688
      dxy     :     0.009083

 12 C s       :     3.169227  s :     3.169227
      pz      :     0.967099  p :     2.803755
      px      :     0.889155
      py      :     0.947501
      dz2     :     0.005704  d :     0.034024
      dxz     :     0.005460
      dyz     :     0.006413
      dx2y2   :     0.008712
      dxy     :     0.007734

 13 C s       :     3.267989  s :     3.267989
      pz      :     0.900784  p :     2.718156
      px      :     0.963168
      py      :     0.854204
      dz2     :     0.005641  d :     0.033563
      dxz     :     0.006916
      dyz     :     0.004927
      dx2y2   :     0.008173
      dxy     :     0.007907

 14 H s       :     0.939764  s :     0.939764
      pz      :     0.004719  p :     0.023298
      px      :     0.014598
      py      :     0.003982

 15 H s       :     0.946786  s :     0.946786
      pz      :     0.005787  p :     0.023758
      px      :     0.006073
      py      :     0.011898

 16 H s       :     0.950436  s :     0.950436
      pz      :     0.005142  p :     0.024087
      px      :     0.007203
      py      :     0.011741

 17 H s       :     0.941203  s :     0.941203
      pz      :     0.008569  p :     0.023318
      px      :     0.006249
      py      :     0.008500

 18 H s       :     0.939264  s :     0.939264
      pz      :     0.009202  p :     0.023290
      px      :     0.006442
      py      :     0.007646

 19 H s       :     0.941080  s :     0.941080
      pz      :     0.004975  p :     0.023312
      px      :     0.013886
      py      :     0.004451

 20 H s       :     0.950511  s :     0.950511
      pz      :     0.006088  p :     0.024078
      px      :     0.005258
      py      :     0.012732

 21 C s       :     3.083809  s :     3.083809
      pz      :     0.970262  p :     2.963161
      px      :     0.969466
      py      :     1.023433
      dz2     :     0.008772  d :     0.048896
      dxz     :     0.010330
      dyz     :     0.010823
      dx2y2   :     0.009644
      dxy     :     0.009328

 22 C s       :     3.051609  s :     3.051609
      pz      :     0.940204  p :     2.909202
      px      :     1.013738
      py      :     0.955261
      dz2     :     0.008239  d :     0.039795
      dxz     :     0.005757
      dyz     :     0.010240
      dx2y2   :     0.007432
      dxy     :     0.008127

 23 C s       :     3.088661  s :     3.088661
      pz      :     0.939070  p :     2.932396
      px      :     1.032627
      py      :     0.960698
      dz2     :     0.008491  d :     0.039780
      dxz     :     0.005862
      dyz     :     0.009990
      dx2y2   :     0.007488
      dxy     :     0.007949

 24 C s       :     3.245236  s :     3.245236
      pz      :     0.955788  p :     2.752288
      px      :     0.951775
      py      :     0.844726
      dz2     :     0.009250  d :     0.034931
      dxz     :     0.005905
      dyz     :     0.007865
      dx2y2   :     0.005641
      dxy     :     0.006270

 25 C s       :     2.996175  s :     2.996175
      pz      :     0.854147  p :     2.801216
      px      :     0.955443
      py      :     0.991626
      dz2     :     0.016027  d :     0.058813
      dxz     :     0.011518
      dyz     :     0.011570
      dx2y2   :     0.010989
      dxy     :     0.008709

 26 C s       :     2.993833  s :     2.993833
      pz      :     0.866716  p :     2.801158
      px      :     0.968520
      py      :     0.965922
      dz2     :     0.011945  d :     0.058591
      dxz     :     0.007701
      dyz     :     0.016634
      dx2y2   :     0.009838
      dxy     :     0.012473

 27 C s       :     3.255974  s :     3.255974
      pz      :     0.927607  p :     2.735081
      px      :     0.918416
      py      :     0.889058
      dz2     :     0.009020  d :     0.034964
      dxz     :     0.005792
      dyz     :     0.008756
      dx2y2   :     0.005186
      dxy     :     0.006209

 28 C s       :     3.170675  s :     3.170675
      pz      :     0.907292  p :     2.822900
      px      :     0.965301
      py      :     0.950307
      dz2     :     0.006123  d :     0.033815
      dxz     :     0.004678
      dyz     :     0.008631
      dx2y2   :     0.007140
      dxy     :     0.007242

 29 H s       :     0.955905  s :     0.955905
      pz      :     0.004570  p :     0.023873
      px      :     0.006667
      py      :     0.012636

 30 C s       :     3.259017  s :     3.259017
      pz      :     0.930413  p :     2.766087
      px      :     0.958646
      py      :     0.877028
      dz2     :     0.007435  d :     0.032413
      dxz     :     0.005087
      dyz     :     0.009033
      dx2y2   :     0.004952
      dxy     :     0.005906

 31 C s       :     3.260580  s :     3.260580
      pz      :     0.966902  p :     2.764032
      px      :     0.999326
      py      :     0.797804
      dz2     :     0.008531  d :     0.032403
      dxz     :     0.005966
      dyz     :     0.006971
      dx2y2   :     0.005624
      dxy     :     0.005311

 32 H s       :     0.957555  s :     0.957555
      pz      :     0.004203  p :     0.023745
      px      :     0.006352
      py      :     0.013191

 33 C s       :     3.170045  s :     3.170045
      pz      :     0.931756  p :     2.819079
      px      :     0.995581
      py      :     0.891742
      dz2     :     0.006724  d :     0.033834
      dxz     :     0.004900
      dyz     :     0.009669
      dx2y2   :     0.006634
      dxy     :     0.005907

 34 C s       :     3.165961  s :     3.165961
      pz      :     0.940231  p :     2.807056
      px      :     0.970387
      py      :     0.896438
      dz2     :     0.007331  d :     0.035434
      dxz     :     0.005187
      dyz     :     0.009745
      dx2y2   :     0.007318
      dxy     :     0.005853

 35 H s       :     0.954458  s :     0.954458
      pz      :     0.011862  p :     0.023552
      px      :     0.008284
      py      :     0.003406

 36 H s       :     0.947091  s :     0.947091
      pz      :     0.004921  p :     0.024813
      px      :     0.007166
      py      :     0.012727

 37 C s       :     3.166316  s :     3.166316
      pz      :     0.909195  p :     2.806356
      px      :     0.941310
      py      :     0.955850
      dz2     :     0.006418  d :     0.035441
      dxz     :     0.004908
      dyz     :     0.009153
      dx2y2   :     0.007149
      dxy     :     0.007813

 38 H s       :     0.947465  s :     0.947465
      pz      :     0.004357  p :     0.024798
      px      :     0.006663
      py      :     0.013777

 39 H s       :     0.954351  s :     0.954351
      pz      :     0.008393  p :     0.023533
      px      :     0.004677
      py      :     0.010463

 40 H s       :     0.949628  s :     0.949628
      pz      :     0.007774  p :     0.023381
      px      :     0.004364
      py      :     0.011243

 41 H s       :     0.949639  s :     0.949639
      pz      :     0.011797  p :     0.023376
      px      :     0.008016
      py      :     0.003563

 42 O s       :     3.759083  s :     3.759083
      pz      :     1.480690  p :     4.500028
      px      :     1.657766
      py      :     1.361572
      dz2     :     0.002177  d :     0.015501
      dxz     :     0.001782
      dyz     :     0.003653
      dx2y2   :     0.003898
      dxy     :     0.003990

 43 C s       :     3.053502  s :     3.053502
      pz      :     1.044744  p :     2.971089
      px      :     1.001536
      py      :     0.924809
      dz2     :     0.007944  d :     0.057004
      dxz     :     0.008034
      dyz     :     0.009336
      dx2y2   :     0.015260
      dxy     :     0.016430

 44 C s       :     3.229894  s :     3.229894
      pz      :     0.917822  p :     2.683195
      px      :     0.931272
      py      :     0.834100
      dz2     :     0.003502  d :     0.033111
      dxz     :     0.005797
      dyz     :     0.005883
      dx2y2   :     0.009418
      dxy     :     0.008510

 45 C s       :     3.230897  s :     3.230897
      pz      :     0.949623  p :     2.682574
      px      :     0.831119
      py      :     0.901831
      dz2     :     0.004860  d :     0.033100
      dxz     :     0.004296
      dyz     :     0.006683
      dx2y2   :     0.008514
      dxy     :     0.008747

 46 C s       :     3.176240  s :     3.176240
      pz      :     0.959438  p :     2.820718
      px      :     0.904666
      py      :     0.956615
      dz2     :     0.004659  d :     0.034261
      dxz     :     0.004697
      dyz     :     0.006705
      dx2y2   :     0.009743
      dxy     :     0.008457

 47 H s       :     0.950125  s :     0.950125
      pz      :     0.008143  p :     0.023582
      px      :     0.006080
      py      :     0.009360

 48 C s       :     3.176368  s :     3.176368
      pz      :     0.949519  p :     2.820992
      px      :     0.937023
      py      :     0.934449
      dz2     :     0.003519  d :     0.034256
      dxz     :     0.005997
      dyz     :     0.005834
      dx2y2   :     0.009108
      dxy     :     0.009798

 49 H s       :     0.950441  s :     0.950441
      pz      :     0.005669  p :     0.023588
      px      :     0.013919
      py      :     0.004000

 50 C s       :     3.169967  s :     3.169967
      pz      :     0.966539  p :     2.801116
      px      :     0.942174
      py      :     0.892403
      dz2     :     0.005277  d :     0.034169
      dxz     :     0.006406
      dyz     :     0.004572
      dx2y2   :     0.008634
      dxy     :     0.009280

 51 H s       :     0.940600  s :     0.940600
      pz      :     0.005694  p :     0.023390
      px      :     0.013781
      py      :     0.003915

 52 H s       :     0.940428  s :     0.940428
      pz      :     0.008080  p :     0.023388
      px      :     0.006168
      py      :     0.009140

 53 H s       :     0.940229  s :     0.940229
      pz      :     0.004655  p :     0.023359
      px      :     0.005880
      py      :     0.012823

 54 N s       :     3.375519  s :     3.375519
      pz      :     1.246872  p :     3.858219
      px      :     1.452478
      py      :     1.158869
      dz2     :     0.006402  d :     0.028326
      dxz     :     0.004663
      dyz     :     0.006903
      dx2y2   :     0.005145
      dxy     :     0.005212



                     *******************************
                     * LOEWDIN POPULATION ANALYSIS *
                     *******************************

----------------------
LOEWDIN ATOMIC CHARGES
----------------------
   0 C :   -0.005616
   1 C :   -0.023064
   2 C :    0.016103
   3 C :   -0.076962
   4 C :    0.010940
   5 C :   -0.036007
   6 C :    0.091322
   7 C :   -0.077056
   8 C :    0.014047
   9 C :   -0.021762
  10 H :    0.042689
  11 C :   -0.006137
  12 C :   -0.035593
  13 C :    0.010498
  14 H :    0.043562
  15 H :    0.042420
  16 H :    0.040639
  17 H :    0.041704
  18 H :    0.043662
  19 H :    0.041754
  20 H :    0.040678
  21 C :   -0.025709
  22 C :   -0.042675
  23 C :   -0.047630
  24 C :   -0.014787
  25 C :    0.028493
  26 C :    0.027332
  27 C :   -0.012554
  28 C :   -0.057952
  29 H :    0.039891
  30 C :   -0.064187
  31 C :   -0.063804
  32 H :    0.040649
  33 C :   -0.058107
  34 C :   -0.027505
  35 H :    0.036363
  36 H :    0.041279
  37 C :   -0.027286
  38 H :    0.041344
  39 H :    0.036378
  40 H :    0.039442
  41 H :    0.039494
  42 O :   -0.217240
  43 C :    0.007796
  44 C :   -0.024257
  45 C :   -0.024569
  46 C :   -0.026945
  47 H :    0.045944
  48 C :   -0.027048
  49 H :    0.046083
  50 C :   -0.029169
  51 H :    0.042276
  52 H :    0.042291
  53 H :    0.041861
  54 N :   -0.003314

-------------------------------
LOEWDIN REDUCED ORBITAL CHARGES
-------------------------------
  0 C s       :     2.869317  s :     2.869317
      pz      :     0.980228  p :     3.047522
      px      :     1.036103
      py      :     1.031191
      dz2     :     0.012461  d :     0.088777
      dxz     :     0.012954
      dyz     :     0.016608
      dx2y2   :     0.024624
      dxy     :     0.022130

  1 C s       :     2.861289  s :     2.861289
      pz      :     1.000904  p :     3.073163
      px      :     1.043723
      py      :     1.028536
      dz2     :     0.010767  d :     0.088612
      dxz     :     0.018838
      dyz     :     0.011535
      dx2y2   :     0.023743
      dxy     :     0.023730

  2 C s       :     2.862341  s :     2.862341
      pz      :     0.960229  p :     3.016676
      px      :     1.049271
      py      :     1.007175
      dz2     :     0.011809  d :     0.104880
      dxz     :     0.019606
      dyz     :     0.016120
      dx2y2   :     0.028117
      dxy     :     0.029229

  3 C s       :     2.856106  s :     2.856106
      pz      :     1.026376  p :     3.116337
      px      :     1.040708
      py      :     1.049253
      dz2     :     0.013836  d :     0.104520
      dxz     :     0.017289
      dyz     :     0.017344
      dx2y2   :     0.029245
      dxy     :     0.026805

  4 C s       :     2.866614  s :     2.866614
      pz      :     0.967762  p :     3.034270
      px      :     1.046141
      py      :     1.020367
      dz2     :     0.011388  d :     0.088175
      dxz     :     0.018982
      dyz     :     0.010614
      dx2y2   :     0.021163
      dxy     :     0.026028

  5 C s       :     2.864127  s :     2.864127
      pz      :     0.997234  p :     3.082360
      px      :     1.055498
      py      :     1.029628
      dz2     :     0.008548  d :     0.089521
      dxz     :     0.016986
      dyz     :     0.012703
      dx2y2   :     0.024097
      dxy     :     0.027187

  6 C s       :     2.857342  s :     2.857342
      pz      :     0.892602  p :     2.841562
      px      :     1.008813
      py      :     0.940147
      dz2     :     0.028916  d :     0.209773
      dxz     :     0.026019
      dyz     :     0.042160
      dx2y2   :     0.056095
      dxy     :     0.056584

  7 C s       :     2.856422  s :     2.856422
      pz      :     1.023413  p :     3.116086
      px      :     1.051677
      py      :     1.040997
      dz2     :     0.012036  d :     0.104548
      dxz     :     0.020177
      dyz     :     0.018687
      dx2y2   :     0.025975
      dxy     :     0.027673

  8 C s       :     2.861643  s :     2.861643
      pz      :     0.986787  p :     3.019263
      px      :     1.004331
      py      :     1.028144
      dz2     :     0.015525  d :     0.105047
      dxz     :     0.018679
      dyz     :     0.018985
      dx2y2   :     0.025998
      dxy     :     0.025860

  9 C s       :     2.861640  s :     2.861640
      pz      :     1.004015  p :     3.071487
      px      :     1.042900
      py      :     1.024572
      dz2     :     0.012093  d :     0.088635
      dxz     :     0.019795
      dyz     :     0.012335
      dx2y2   :     0.021248
      dxy     :     0.023164

 10 H s       :     0.888234  s :     0.888234
      pz      :     0.016930  p :     0.069077
      px      :     0.017508
      py      :     0.034639

 11 C s       :     2.869245  s :     2.869245
      pz      :     0.981634  p :     3.048082
      px      :     1.043261
      py      :     1.023187
[...]
    133       0.000000   0.000000   0.000000
    134       0.000000   0.000000   0.000000
    135       0.000000   0.000000   0.000000
    136       0.000000   0.000000   0.000000
    137       0.000000   0.000000   0.000000
    138       0.000000   0.000000   0.000000
    139       0.000000   0.000000   0.000000
    140       0.000000   0.000000   0.000000
    141       0.000000   0.000000   0.000000
    142       0.000000   0.000000   0.000000
    143       0.000000   0.000000   0.000000
    144       0.000000   0.000000   0.000000
    145       0.000000   0.000000   0.000000
    146       0.000000   0.000000   0.000000
    147       0.000000   0.000000   0.000000
    148       0.000000   0.000000   0.000000
    149       0.000000   0.000000   0.000000
    150       0.000000   0.000000   0.000000
    151       0.000000   0.000000   0.000000
    152       0.000000   0.000000   0.000000
    153       0.000000   0.000000   0.000000
    154       0.000000   0.000000   0.000000
    155       0.000000   0.000000   0.000000
    156       0.000000   0.000000   0.000000
    157       0.000000   0.000000   0.000000
    158       0.000000   0.000000   0.000000

Image part: 
                  0          1          2    
      0       0.000000   0.000000   0.000000
      1       0.000000   0.000000   0.000000
      2      -0.000000   0.000000   0.000000
      3       0.000000   0.000000   0.000000
      4       0.000000   0.000000   0.000000
      5       0.000000   0.000000   0.000000
      6       0.000000   0.000000   0.000000
      7       0.000000   0.000000   0.000000
      8       0.000000   0.000000   0.000000
      9       0.000000   0.000000   0.000000
     10       0.000000   0.000000   0.000000
     11       0.000000   0.000000   0.000000
     12       0.000000   0.000000   0.000000
     13      -0.000000   0.000000   0.000000
     14      -0.000000   0.000000   0.000000
     15      -0.000000   0.000000   0.000000
     16      -0.000000   0.000000   0.000000
     17       0.000000   0.000000   0.000000
     18      -0.000000   0.000000   0.000000
     19       0.000000   0.000000   0.000000
     20      -0.000000   0.000000   0.000000
     21      -0.000000   0.000000   0.000000
     22       0.000000   0.000000   0.000000
     23       0.000000   0.000000   0.000000
     24      -0.000000   0.000000   0.000000
     25       0.000000   0.000000   0.000000
     26       0.000000   0.000000   0.000000
     27      -0.000000   0.000000   0.000000
     28       0.000000   0.000000   0.000000
     29      -0.000000   0.000000   0.000000
     30       0.000000   0.000000   0.000000
     31       0.000000   0.000000   0.000000
     32      -0.000000   0.000000   0.000000
     33       0.000000   0.000000   0.000000
     34       0.000000   0.000000   0.000000
     35      -0.000000   0.000000   0.000000
     36      -0.000000   0.000000   0.000000
     37      -0.000000   0.000000   0.000000
     38       0.000000   0.000000   0.000000
     39      -0.000000   0.000000   0.000000
     40       0.000000   0.000000   0.000000
     41       0.000000   0.000000   0.000000
     42       0.000000   0.000000   0.000000
     43       0.000000   0.000000   0.000000
     44       0.000000   0.000000   0.000000
     45      -0.000000   0.000000   0.000000
     46       0.000000   0.000000   0.000000
     47      -0.000000   0.000000   0.000000
     48      -0.000000   0.000000   0.000000
     49      -0.000000   0.000000   0.000000
     50       0.000000   0.000000   0.000000
     51       0.000000   0.000000   0.000000
     52       0.000000   0.000000   0.000000
     53       0.000000   0.000000   0.000000
     54       0.000000   0.000000   0.000000
     55       0.000000   0.000000   0.000000
     56      -0.000000   0.000000   0.000000
     57       0.000000   0.000000   0.000000
     58       0.000000   0.000000   0.000000
     59       0.000000   0.000000   0.000000
     60      -0.000000   0.000000   0.000000
     61       0.000000   0.000000   0.000000
     62       0.000000   0.000000   0.000000
     63      -0.000000   0.000000   0.000000
     64       0.000000   0.000000   0.000000
     65      -0.000000   0.000000   0.000000
     66      -0.000000   0.000000   0.000000
     67      -0.000000   0.000000   0.000000
     68       0.000000   0.000000   0.000000
     69       0.000000   0.000000   0.000000
     70       0.000000   0.000000   0.000000
     71      -0.000000   0.000000   0.000000
     72      -0.000000   0.000000   0.000000
     73       0.000000   0.000000   0.000000
     74       0.000000   0.000000   0.000000
     75      -0.000000   0.000000   0.000000
     76       0.000000   0.000000   0.000000
     77       0.000000   0.000000   0.000000
     78      -0.000000   0.000000   0.000000
     79       0.000000   0.000000   0.000000
     80       0.000000   0.000000   0.000000
     81       0.000000   0.000000   0.000000
     82       0.000000   0.000000   0.000000
     83      -0.000000   0.000000   0.000000
     84       0.000000   0.000000   0.000000
     85       0.000000   0.000000   0.000000
     86      -0.000000   0.000000   0.000000
     87      -0.000000   0.000000   0.000000
     88      -0.000000   0.000000   0.000000
     89      -0.000000   0.000000   0.000000
     90      -0.000000   0.000000   0.000000
     91       0.000000   0.000000   0.000000
     92       0.000000   0.000000   0.000000
     93       0.000000   0.000000   0.000000
     94      -0.000000   0.000000   0.000000
     95      -0.000000   0.000000   0.000000
     96       0.000000   0.000000   0.000000
     97       0.000000   0.000000   0.000000
     98       0.000000   0.000000   0.000000
     99       0.000000   0.000000   0.000000
    100       0.000000   0.000000   0.000000
    101       0.000000   0.000000   0.000000
    102      -0.000000   0.000000   0.000000
    103      -0.000000   0.000000   0.000000
    104       0.000000   0.000000   0.000000
    105       0.000000   0.000000   0.000000
    106       0.000000   0.000000   0.000000
    107      -0.000000   0.000000   0.000000
    108       0.000000   0.000000   0.000000
    109      -0.000000   0.000000   0.000000
    110      -0.000000   0.000000   0.000000
    111       0.000000   0.000000   0.000000
    112       0.000000   0.000000   0.000000
    113       0.000000   0.000000   0.000000
    114      -0.000000   0.000000   0.000000
    115      -0.000000   0.000000   0.000000
    116      -0.000000   0.000000   0.000000
    117       0.000000   0.000000   0.000000
    118       0.000000   0.000000   0.000000
    119      -0.000000   0.000000   0.000000
    120      -0.000000   0.000000   0.000000
    121       0.000000   0.000000   0.000000
    122       0.000000   0.000000   0.000000
    123       0.000000   0.000000   0.000000
    124      -0.000000   0.000000   0.000000
    125      -0.000000   0.000000   0.000000
    126      -0.000000   0.000000   0.000000
    127       0.000000   0.000000   0.000000
    128      -0.000000   0.000000   0.000000
    129      -0.000000   0.000000   0.000000
    130      -0.000000   0.000000   0.000000
    131       0.000000   0.000000   0.000000
    132       0.000000   0.000000   0.000000
    133       0.000000   0.000000   0.000000
    134       0.000000   0.000000   0.000000
    135      -0.000000   0.000000   0.000000
    136      -0.000000   0.000000   0.000000
    137      -0.000000   0.000000   0.000000
    138       0.000000   0.000000   0.000000
    139       0.000000   0.000000   0.000000
    140      -0.000000   0.000000   0.000000
    141      -0.000000   0.000000   0.000000
    142      -0.000000   0.000000   0.000000
    143      -0.000000   0.000000   0.000000
    144       0.000000   0.000000   0.000000
    145       0.000000   0.000000   0.000000
    146      -0.000000   0.000000   0.000000
    147       0.000000   0.000000   0.000000
    148      -0.000000   0.000000   0.000000
    149      -0.000000   0.000000   0.000000
    150       0.000000   0.000000   0.000000
    151      -0.000000   0.000000   0.000000
    152       0.000000   0.000000   0.000000
    153      -0.000000   0.000000   0.000000
    154       0.000000   0.000000   0.000000
    155       0.000000   0.000000   0.000000
    156       0.000000   0.000000   0.000000
    157       0.000000   0.000000   0.000000
    158       0.000000   0.000000   0.000000

	 Mode: 0 Norm: 0.000000 

	 Mode: 1 Norm: 0.000000 

	 Mode: 2 Norm: 0.000000 

	 Mode: 3 Norm: 0.000000 

	 Mode: 4 Norm: 0.000000 

	 Mode: 5 Norm: 0.000000 

	 Mode: 6 Norm: 0.000000 

	 Mode: 7 Norm: 0.000000 

	 Mode: 8 Norm: 0.000000 

	 Mode: 9 Norm: 0.000000 

	 Mode: 10 Norm: 0.000000 

	 Mode: 11 Norm: 0.000000 

	 Mode: 12 Norm: 0.000000 

	 Mode: 13 Norm: 0.000000 

	 Mode: 14 Norm: 0.000000 

	 Mode: 15 Norm: 0.000000 

	 Mode: 16 Norm: 0.000000 

	 Mode: 17 Norm: 0.000000 

	 Mode: 18 Norm: 0.000000 

	 Mode: 19 Norm: 0.000000 

	 Mode: 20 Norm: 0.000000 

	 Mode: 21 Norm: 0.000000 

	 Mode: 22 Norm: 0.000000 

	 Mode: 23 Norm: 0.000000 

	 Mode: 24 Norm: 0.000000 

	 Mode: 25 Norm: 0.000000 

	 Mode: 26 Norm: 0.000000 

	 Mode: 27 Norm: 0.000000 

	 Mode: 28 Norm: 0.000000 

	 Mode: 29 Norm: 0.000000 

	 Mode: 30 Norm: 0.000000 

	 Mode: 31 Norm: 0.000000 

	 Mode: 32 Norm: 0.000000 

	 Mode: 33 Norm: 0.000000 

	 Mode: 34 Norm: 0.000000 

	 Mode: 35 Norm: 0.000000 

	 Mode: 36 Norm: 0.000000 

	 Mode: 37 Norm: 0.000000 

	 Mode: 38 Norm: 0.000000 

	 Mode: 39 Norm: 0.000000 

	 Mode: 40 Norm: 0.000000 

	 Mode: 41 Norm: 0.000000 

	 Mode: 42 Norm: 0.000000 

	 Mode: 43 Norm: 0.000000 

	 Mode: 44 Norm: 0.000000 

	 Mode: 45 Norm: 0.000000 

	 Mode: 46 Norm: 0.000000 

	 Mode: 47 Norm: 0.000000 

	 Mode: 48 Norm: 0.000000 

	 Mode: 49 Norm: 0.000000 

	 Mode: 50 Norm: 0.000000 

	 Mode: 51 Norm: 0.000000 

	 Mode: 52 Norm: 0.000000 

	 Mode: 53 Norm: 0.000000 

	 Mode: 54 Norm: 0.000000 

	 Mode: 55 Norm: 0.000000 

	 Mode: 56 Norm: 0.000000 

	 Mode: 57 Norm: 0.000000 

	 Mode: 58 Norm: 0.000000 

	 Mode: 59 Norm: 0.000000 

	 Mode: 60 Norm: 0.000000 

	 Mode: 61 Norm: 0.000000 

	 Mode: 62 Norm: 0.000000 

	 Mode: 63 Norm: 0.000000 

	 Mode: 64 Norm: 0.000000 

	 Mode: 65 Norm: 0.000000 

	 Mode: 66 Norm: 0.000000 

	 Mode: 67 Norm: 0.000000 

	 Mode: 68 Norm: 0.000000 

	 Mode: 69 Norm: 0.000000 

	 Mode: 70 Norm: 0.000000 

	 Mode: 71 Norm: 0.000000 

	 Mode: 72 Norm: 0.000000 

	 Mode: 73 Norm: 0.000000 

	 Mode: 74 Norm: 0.000000 

	 Mode: 75 Norm: 0.000000 

	 Mode: 76 Norm: 0.000000 

	 Mode: 77 Norm: 0.000000 

	 Mode: 78 Norm: 0.000000 

	 Mode: 79 Norm: 0.000000 

	 Mode: 80 Norm: 0.000000 

	 Mode: 81 Norm: 0.000000 

	 Mode: 82 Norm: 0.000000 

	 Mode: 83 Norm: 0.000000 

	 Mode: 84 Norm: 0.000000 

	 Mode: 85 Norm: 0.000000 

	 Mode: 86 Norm: 0.000000 

	 Mode: 87 Norm: 0.000000 

	 Mode: 88 Norm: 0.000000 

	 Mode: 89 Norm: 0.000000 

	 Mode: 90 Norm: 0.000000 

	 Mode: 91 Norm: 0.000000 

	 Mode: 92 Norm: 0.000000 

	 Mode: 93 Norm: 0.000000 

	 Mode: 94 Norm: 0.000000 

	 Mode: 95 Norm: 0.000000 

	 Mode: 96 Norm: 0.000000 

	 Mode: 97 Norm: 0.000000 

	 Mode: 98 Norm: 0.000000 

	 Mode: 99 Norm: 0.000000 

	 Mode: 100 Norm: 0.000000 

	 Mode: 101 Norm: 0.000000 

	 Mode: 102 Norm: 0.000000 

	 Mode: 103 Norm: 0.000000 

	 Mode: 104 Norm: 0.000000 

	 Mode: 105 Norm: 0.000000 

	 Mode: 106 Norm: 0.000000 

	 Mode: 107 Norm: 0.000000 

	 Mode: 108 Norm: 0.000000 

	 Mode: 109 Norm: 0.000000 

	 Mode: 110 Norm: 0.000000 

	 Mode: 111 Norm: 0.000000 

	 Mode: 112 Norm: 0.000000 

	 Mode: 113 Norm: 0.000000 

	 Mode: 114 Norm: 0.000000 

	 Mode: 115 Norm: 0.000000 

	 Mode: 116 Norm: 0.000000 

	 Mode: 117 Norm: 0.000000 

	 Mode: 118 Norm: 0.000000 

	 Mode: 119 Norm: 0.000000 

	 Mode: 120 Norm: 0.000000 

	 Mode: 121 Norm: 0.000000 

	 Mode: 122 Norm: 0.000000 

	 Mode: 123 Norm: 0.000000 

	 Mode: 124 Norm: 0.000000 

	 Mode: 125 Norm: 0.000000 

	 Mode: 126 Norm: 0.000000 

	 Mode: 127 Norm: 0.000000 

	 Mode: 128 Norm: 0.000000 

	 Mode: 129 Norm: 0.000000 

	 Mode: 130 Norm: 0.000000 

	 Mode: 131 Norm: 0.000000 

	 Mode: 132 Norm: 0.000000 

	 Mode: 133 Norm: 0.000000 

	 Mode: 134 Norm: 0.000000 

	 Mode: 135 Norm: 0.000000 

	 Mode: 136 Norm: 0.000000 

	 Mode: 137 Norm: 0.000000 

	 Mode: 138 Norm: 0.000000 

	 Mode: 139 Norm: 0.000000 

	 Mode: 140 Norm: 0.000000 

	 Mode: 141 Norm: 0.000000 

	 Mode: 142 Norm: 0.000000 

	 Mode: 143 Norm: 0.000000 

	 Mode: 144 Norm: 0.000000 

	 Mode: 145 Norm: 0.000000 

	 Mode: 146 Norm: 0.000000 

	 Mode: 147 Norm: 0.000000 

	 Mode: 148 Norm: 0.000000 

	 Mode: 149 Norm: 0.000000 

	 Mode: 150 Norm: 0.000000 

	 Mode: 151 Norm: 0.000000 

	 Mode: 152 Norm: 0.000000 

	 Mode: 153 Norm: 0.000000 

	 Mode: 154 Norm: 0.000000 

	 Mode: 155 Norm: 0.000000 

	 Mode: 156 Norm: 0.000000 

	 Mode: 157 Norm: 0.000000 

	 Mode: 158 Norm: 0.000000 

          ***Everything is set, now computing the correlation function***

Homogeneous linewidth is:			50.00 cm-1
Inhomogeneous linewidth is:			150.00 cm-1
Number of points:				524288
Maximum time:					263.10 fs
Temperature used:				298.15 K
Z value:					1.071007e-191
Cutoff for the correlation function:		1.00e-12
Adiabatic energy difference:			-161.31 cm-1
0-0 energy difference:				131.67 cm-1
Reference SOC (Re and Im):			0.000000e+00, 2.883537e-07
Calculating correlation function:		...done
Last element of the correlation function:	-0.000000,-0.000000

The calculated ISC rate constant is		1.363748e+05 s-1
with 5.37 from FC and 94.63 from HT

Total run time: 12 hours 59 minutes 20 seconds

                      ****ORCA ESD FINISHED WITHOUT ERROR****

--------------------------------
SUGGESTED CITATIONS FOR THIS RUN
--------------------------------

Below you find a list of papers that are relevant to this ORCA run
We neither can nor want to force you to cite these papers, but we appreciate if you do
You receive ORCA, which is the product of decades of hard work by many enthusiastic individuals, for free
The only thing we kindly ask in return is that you cite our papers,
We deeply appreciate it, if you show your appreciation for ORCA by not just citing the generic ORCA reference.

Please note that relegating all ORCA citations to the supporting information does *not* help us.
SI sections are not indexed - citations you put there will not count into any citation statistics
But we need these citations in order to attract the funding resources that allow us to do what we are doing

Therefore, if you are a happy ORCA user, please consider citing a few of the papers listed below in the main body of your paper

In addition to the list printed below, the program has created the file P7.bibtex that contains the list in bibtex format
You can import this file easily into all common literature databanks and citation aid programs


List of essential papers. We consider these as the minimum necessary citations

  1. Neese,F.
     Software update: the ORCA program system, version 5.0
     WIRES Comput. Molec. Sci., 2022 12(1)e1606
     doi.org/10.1002/wcms.1606

List of papers to cite with high priority. The work reported in these papers was absolutely
necessary for this run to complete.
Our perspective: the developers of density functionals and basis sets usually get cited in chemistry papers
Good! But without the algorithms to do something with them, the functionals or basis sets would not do anything.
Hence, in our opinion, the algorithm design and method developments papers are equally worthy of getting cited

  1. Neese,F.; Olbrich,G.
     Efficient use of the resolution of the identity approximation in time-dependent density functional calculations with hybrid density functionals
     Chem. Phys. Lett., 2002 362 170-178
     doi.org/10.1016/s0009-2614(02)01053-9
  2. Neese,F.
     An improvement of the resolution of the identity approximation for the formation of the Coulomb matrix
     J. Comp. Chem., 2003 24(14)1740-1747
     doi.org/10.1002/jcc.10318
  3. Neese,F.; Wennmohs,F.; Hansen,A.; Becker,U.
     Efficient, approximate and parallel Hartree-Fock and hybrid DFT calculations. A 'chain-of-spheres' algorithm for the Hartree-Fock exchange
     Chem. Phys., 2009 356(1-3)98-109
     doi.org/10.1016/j.chemphys.2008.10.036
  4. Bykov,D.; Petrenko,T.; Izsak,R.; Kossmann,S.; Becker,U.; Valeev,E.; Neese,F.
     Efficient implementation of the analytic second derivatives of Hartree-Fock and hybrid DFT energies: a detailed analysis of different approximations
     Molec. Phys., 2015 113 1961-1977
     doi.org/10.1080/00268976.2015.1025114
  5. de Souza,B.; Neese,F.; Izsak,R.
     On the theoretical prediction of fluorescence rates from first principles using the path integral approach
     J. Chem. Phys., 2018 148 10
     doi.org/10.1063/1.5010895
  6. Garcia-Rates,M.; Neese,F.
     Effect of the Solute Cavity on the Solvation Energy and its Derivatives within the Framework of the Gaussian Charge Scheme
     J. Comput. Chem., 2020 41 922-939
     doi.org/10.1002/jcc.26139
  7. Helmich-Paris,B.; de Souza,B.; Neese,F.; Izsák,R.
     An improved chain of spheres for exchange algorithm
     J. Chem. Phys., 2021 155 104109
     doi.org/doi: 10.1063/5.0058766.
  8. Neese,F.
     The SHARK Integral Generation and Digestion System
     J. Comp. Chem., 2022  1-16
     doi.org/10.1002/jcc.26942
  9. Lehtola,S.; Steigemann,C.; Oliveira,M.; Marques,M.
     Recent developments in Libxc - A comprehensive library of functionals for density functional theory
     Software X, 2018 7 
     doi.org/10.1016/j.softx.2017.11.002

List of suggested additional citations. These are papers that are important in the 'surrounding' of 
of this run, or papers that preceded the highly important papers. If you like your results we are grateful for a citation.

  1. Izsak,R.; Neese,F.
     An overlap fitted chain of spheres exchange method
     J. Chem. Phys., 2011 135 144105
     doi.org/10.1063/1.3646921
  2. Izsak,R.; Hansen,A.; Neese,F.
     The resolution of identity and chain of spheres approximations for the LPNO-CCSD singles Fock term
     Molec. Phys., 2012 110 2413-2417
     doi.org/10.1080/00268976.2012.687466
  3. Neese,F.
     The ORCA program system
     WIRES Comput. Molec. Sci., 2012 2(1)73-78
     doi.org/10.1002/wcms.81
  4. Izsak,R.; Neese,F.; Klopper,W.
     Robust fitting techniques in the chain of spheres approximation to the Fock exchange: The role of the complementary space
     J. Chem. Phys., 2013 139 
     doi.org/10.1063/1.4819264
  5. Neese,F.
     Software update: the ORCA program system, version 4.0
     WIRES Comput. Molec. Sci., 2018 8(1)1-6
     doi.org/10.1002/wcms.1327
  6. de Souza,B.; Farias,G.; Neese,F.; Izsak,R.
     Predicting Phosphorescence Rates of Light Organic Molecules Using Time-Dependent Density Functional Theory and the Path Integral Approach to Dynamics
     J. Chem. Theory Comput., 2019 15 1896-1904
     doi.org/10.1021/acs.jctc.8b00841
  7. Neese,F.; Wennmohs,F.; Becker,U.; Riplinger,C.
     The ORCA quantum chemistry program package
     J. Chem. Phys., 2020 152 Art. No. L224108
     doi.org/10.1063/5.0004608

List of optional additional citations

  1. Neese,F.
     Approximate second-order SCF convergence for spin unrestricted wavefunctions
     Chem. Phys. Lett., 2000 325(1-3)93-98
     doi.org/10.1016/s0009-2614(00)00662-x

Timings for individual modules:

Sum of individual times          ...    46902.153 sec (= 781.703 min)
Startup calculation              ...        4.954 sec (=   0.083 min)   0.0 %
SCF iterations                   ...       59.610 sec (=   0.994 min)   0.1 %
Property integrals               ...        4.933 sec (=   0.082 min)   0.0 %
Property calculations            ...        1.855 sec (=   0.031 min)   0.0 %
CIS module                       ...       70.255 sec (=   1.171 min)   0.1 %
                             ****ORCA TERMINATED NORMALLY****
TOTAL RUN TIME: 0 days 13 hours 1 minutes 46 seconds 597 msec
